version 2
run General-0-20180628-12:17:48-8443
attr configname General
attr datetime 20180628-12:17:48
attr experiment General
attr inifile omnetpp.ini
attr iterationvars ""
attr iterationvars2 $repetition=0
attr measurement ""
attr network org.mixim.examples.NEW.src.Network
attr processid 8443
attr repetition 0
attr replication #0
attr resultdir results
attr runnumber 0
attr seedset 0

vector 13  Network.node[0].batteryStats  capacity  ETV
attr unit  mW-s
vector 14  Network.node[0].batteryStats  capacity(relative)  ETV
vector 15  Network.node[0].batteryStats  estimate  ETV
attr unit  mW-s
vector 16  Network.node[0].batteryStats  estimate(relative)  ETV
vector 24  Network.node[1].batteryStats  capacity  ETV
attr unit  mW-s
vector 25  Network.node[1].batteryStats  capacity(relative)  ETV
vector 26  Network.node[1].batteryStats  estimate  ETV
attr unit  mW-s
vector 27  Network.node[1].batteryStats  estimate(relative)  ETV
vector 35  Network.node[2].batteryStats  capacity  ETV
attr unit  mW-s
vector 36  Network.node[2].batteryStats  capacity(relative)  ETV
vector 37  Network.node[2].batteryStats  estimate  ETV
attr unit  mW-s
vector 38  Network.node[2].batteryStats  estimate(relative)  ETV
vector 46  Network.node[3].batteryStats  capacity  ETV
attr unit  mW-s
vector 47  Network.node[3].batteryStats  capacity(relative)  ETV
vector 48  Network.node[3].batteryStats  estimate  ETV
attr unit  mW-s
vector 49  Network.node[3].batteryStats  estimate(relative)  ETV
vector 57  Network.node[4].batteryStats  capacity  ETV
attr unit  mW-s
vector 58  Network.node[4].batteryStats  capacity(relative)  ETV
vector 59  Network.node[4].batteryStats  estimate  ETV
attr unit  mW-s
vector 60  Network.node[4].batteryStats  estimate(relative)  ETV
vector 68  Network.node[5].batteryStats  capacity  ETV
attr unit  mW-s
vector 69  Network.node[5].batteryStats  capacity(relative)  ETV
vector 70  Network.node[5].batteryStats  estimate  ETV
attr unit  mW-s
vector 71  Network.node[5].batteryStats  estimate(relative)  ETV
vector 79  Network.node[6].batteryStats  capacity  ETV
attr unit  mW-s
vector 80  Network.node[6].batteryStats  capacity(relative)  ETV
vector 81  Network.node[6].batteryStats  estimate  ETV
attr unit  mW-s
vector 82  Network.node[6].batteryStats  estimate(relative)  ETV
vector 90  Network.node[7].batteryStats  capacity  ETV
attr unit  mW-s
vector 91  Network.node[7].batteryStats  capacity(relative)  ETV
vector 92  Network.node[7].batteryStats  estimate  ETV
attr unit  mW-s
vector 93  Network.node[7].batteryStats  estimate(relative)  ETV
vector 101  Network.node[8].batteryStats  capacity  ETV
attr unit  mW-s
vector 102  Network.node[8].batteryStats  capacity(relative)  ETV
vector 103  Network.node[8].batteryStats  estimate  ETV
attr unit  mW-s
vector 104  Network.node[8].batteryStats  estimate(relative)  ETV
vector 112  Network.node[9].batteryStats  capacity  ETV
attr unit  mW-s
vector 113  Network.node[9].batteryStats  capacity(relative)  ETV
vector 114  Network.node[9].batteryStats  estimate  ETV
attr unit  mW-s
vector 115  Network.node[9].batteryStats  estimate(relative)  ETV
vector 123  Network.node[10].batteryStats  capacity  ETV
attr unit  mW-s
vector 124  Network.node[10].batteryStats  capacity(relative)  ETV
vector 125  Network.node[10].batteryStats  estimate  ETV
attr unit  mW-s
vector 126  Network.node[10].batteryStats  estimate(relative)  ETV
vector 134  Network.node[11].batteryStats  capacity  ETV
attr unit  mW-s
vector 135  Network.node[11].batteryStats  capacity(relative)  ETV
vector 136  Network.node[11].batteryStats  estimate  ETV
attr unit  mW-s
vector 137  Network.node[11].batteryStats  estimate(relative)  ETV
vector 145  Network.node[12].batteryStats  capacity  ETV
attr unit  mW-s
vector 146  Network.node[12].batteryStats  capacity(relative)  ETV
vector 147  Network.node[12].batteryStats  estimate  ETV
attr unit  mW-s
vector 148  Network.node[12].batteryStats  estimate(relative)  ETV
vector 156  Network.node[13].batteryStats  capacity  ETV
attr unit  mW-s
vector 157  Network.node[13].batteryStats  capacity(relative)  ETV
vector 158  Network.node[13].batteryStats  estimate  ETV
attr unit  mW-s
vector 159  Network.node[13].batteryStats  estimate(relative)  ETV
vector 167  Network.node[14].batteryStats  capacity  ETV
attr unit  mW-s
vector 168  Network.node[14].batteryStats  capacity(relative)  ETV
vector 169  Network.node[14].batteryStats  estimate  ETV
attr unit  mW-s
vector 170  Network.node[14].batteryStats  estimate(relative)  ETV
vector 178  Network.node[15].batteryStats  capacity  ETV
attr unit  mW-s
vector 179  Network.node[15].batteryStats  capacity(relative)  ETV
vector 180  Network.node[15].batteryStats  estimate  ETV
attr unit  mW-s
vector 181  Network.node[15].batteryStats  estimate(relative)  ETV
vector 189  Network.node[16].batteryStats  capacity  ETV
attr unit  mW-s
vector 190  Network.node[16].batteryStats  capacity(relative)  ETV
vector 191  Network.node[16].batteryStats  estimate  ETV
attr unit  mW-s
vector 192  Network.node[16].batteryStats  estimate(relative)  ETV
vector 200  Network.node[17].batteryStats  capacity  ETV
attr unit  mW-s
vector 201  Network.node[17].batteryStats  capacity(relative)  ETV
vector 202  Network.node[17].batteryStats  estimate  ETV
attr unit  mW-s
vector 203  Network.node[17].batteryStats  estimate(relative)  ETV
vector 211  Network.node[18].batteryStats  capacity  ETV
attr unit  mW-s
vector 212  Network.node[18].batteryStats  capacity(relative)  ETV
vector 213  Network.node[18].batteryStats  estimate  ETV
attr unit  mW-s
vector 214  Network.node[18].batteryStats  estimate(relative)  ETV
vector 222  Network.node[19].batteryStats  capacity  ETV
attr unit  mW-s
vector 223  Network.node[19].batteryStats  capacity(relative)  ETV
vector 224  Network.node[19].batteryStats  estimate  ETV
attr unit  mW-s
vector 225  Network.node[19].batteryStats  estimate(relative)  ETV
vector 233  Network.node[20].batteryStats  capacity  ETV
attr unit  mW-s
vector 234  Network.node[20].batteryStats  capacity(relative)  ETV
vector 235  Network.node[20].batteryStats  estimate  ETV
attr unit  mW-s
vector 236  Network.node[20].batteryStats  estimate(relative)  ETV
vector 244  Network.node[21].batteryStats  capacity  ETV
attr unit  mW-s
vector 245  Network.node[21].batteryStats  capacity(relative)  ETV
vector 246  Network.node[21].batteryStats  estimate  ETV
attr unit  mW-s
vector 247  Network.node[21].batteryStats  estimate(relative)  ETV
vector 255  Network.node[22].batteryStats  capacity  ETV
attr unit  mW-s
vector 256  Network.node[22].batteryStats  capacity(relative)  ETV
vector 257  Network.node[22].batteryStats  estimate  ETV
attr unit  mW-s
vector 258  Network.node[22].batteryStats  estimate(relative)  ETV
vector 266  Network.node[23].batteryStats  capacity  ETV
attr unit  mW-s
vector 267  Network.node[23].batteryStats  capacity(relative)  ETV
vector 268  Network.node[23].batteryStats  estimate  ETV
attr unit  mW-s
vector 269  Network.node[23].batteryStats  estimate(relative)  ETV
vector 277  Network.node[24].batteryStats  capacity  ETV
attr unit  mW-s
vector 278  Network.node[24].batteryStats  capacity(relative)  ETV
vector 279  Network.node[24].batteryStats  estimate  ETV
attr unit  mW-s
vector 280  Network.node[24].batteryStats  estimate(relative)  ETV
13	0	0	907200
13	876	1	907132.3224192
13	926	2	907064.6424192
13	976	3	906996.9624192
13	1026	4	906929.2824192
13	1076	5	906861.6024192
13	1126	6	906793.9224192
13	1176	7	906726.2424192
13	1226	8	906658.5624192
13	1276	9	906590.8824192
13	1326	10	906523.2024192
13	1376	11	906455.5224192
13	1426	12	906387.8424192
13	1476	13	906320.1624192
13	1526	14	906252.4824192
13	1576	15	906184.8024192
13	1626	16	906117.1224192
13	1740	17	906049.4424192
13	1790	18	905981.7624192
13	1840	19	905914.0824192
13	1890	20	905846.4024192
13	1940	21	905778.7224192
13	1990	22	905711.0424192
13	2040	23	905643.3624192
13	2090	24	905575.6824192
13	2140	25	905508.0024192
13	2190	26	905440.3224192
13	2240	27	905372.6424192
13	2290	28	905304.9624192
13	2340	29	905237.2824192
13	2390	30	905169.6024192
13	2440	31	905101.9224192
13	2490	32	905034.2424192
13	2540	33	904966.5624192
13	2590	34	904898.8824192
13	2640	35	904831.2024192
13	2690	36	904763.5224192
13	2740	37	904695.8424192
13	2790	38	904628.1624192
13	2840	39	904560.4824192
13	2890	40	904492.8024192
13	2940	41	904425.1224192
13	2990	42	904357.4424192
13	3109	43	904289.7624192
13	3159	44	904222.0824192
13	3209	45	904154.4024192
13	3297	46	904086.7224192
13	3347	47	904019.0424192
13	3397	48	903951.3624192
13	3447	49	903883.6824192
13	3497	50	903816.0024192
13	3547	51	903748.3224192
13	3597	52	903680.6424192
13	3647	53	903612.9624192
13	3697	54	903545.2824192
13	3747	55	903477.6024192
13	3797	56	903409.9224192
13	3949	57	903342.2424192
13	4099	58	903274.5624192
13	4149	59	903206.8824192
13	4201	60	903139.2024192
13	4289	61	903071.5224192
13	4339	62	903003.8424192
13	4427	63	902936.1624192
13	4477	64	902868.4824192
13	4527	65	902800.8024192
13	4577	66	902733.1224192
13	4627	67	902665.4424192
13	4815	68	902597.7624192
13	4865	69	902530.0824192
13	4915	70	902462.4024192
13	4965	71	902394.7224192
13	5015	72	902327.0424192
13	5065	73	902259.3624192
13	5210	74	902191.6824192
13	5260	75	902124.0024192
13	5405	76	902056.3224192
13	5455	77	901988.6424192
13	5505	78	901920.9624192
13	5660	79	901853.2824192
13	5710	80	901785.6024192
13	5760	81	901717.9224192
13	5926	82	901650.24903168
13	6071	83	901582.56903168
13	6121	84	901514.88903168
13	6240	85	901447.20903168
13	6290	86	901379.52903168
13	6340	87	901311.84903168
13	6485	88	901244.16903168
13	6535	89	901176.48903168
13	6585	90	901108.80903168
13	6635	91	901041.12903168
13	6685	92	900973.44903168
13	6735	93	900905.76903168
13	6785	94	900838.08903168
13	6835	95	900770.40903168
13	6980	96	900702.72903168
13	7030	97	900635.04903168
13	7080	98	900567.36903168
13	7130	99	900499.68903168
13	7180	100	900432.00903168
13	7230	101	900364.32903168
13	7280	102	900296.64903167
13	7330	103	900228.96903167
13	7380	104	900161.28903167
13	7430	105	900093.60903167
13	7585	106	900025.92903167
13	7635	107	899958.24903167
13	7801	108	899890.56903167
13	7851	109	899822.88903167
13	7901	110	899755.20903167
13	7951	111	899687.52903167
13	8134	112	899619.84903167
13	8300	113	899552.16903167
13	8350	114	899484.48903167
13	8400	115	899416.80903167
13	8450	116	899349.12903167
13	8500	117	899281.44903167
13	8588	118	899213.76903167
13	8638	119	899146.08903167
13	8690	120	899078.40903167
13	8740	121	899010.72903167
13	8790	122	898943.04903167
13	8840	123	898875.36903167
13	8890	124	898807.68903167
13	8940	125	898740.00903167
13	9085	126	898672.32903167
13	9135	127	898604.64903167
13	9185	128	898536.96903167
13	9235	129	898469.28903167
13	9285	130	898401.60903167
13	9335	131	898333.92903167
13	9385	132	898266.24903167
13	9435	133	898198.56903167
13	9485	134	898130.88903167
13	9535	135	898063.20903167
13	9585	136	897995.52903167
13	9699	137	897927.84903167
13	9749	138	897860.16903167
13	9799	139	897792.48903167
13	9849	140	897724.80903167
13	9899	141	897657.12903167
13	9949	142	897589.44903167
13	9999	143	897521.76903167
13	10049	144	897454.08903167
13	10099	145	897386.40903167
13	10149	146	897318.72903167
13	10199	147	897251.04903167
13	10249	148	897183.36903167
13	10299	149	897115.68903167
13	10349	150	897048.00903167
13	10399	151	896980.32903167
13	10449	152	896912.64903167
13	10499	153	896844.96903167
13	10549	154	896777.28903167
13	10599	155	896709.60903167
13	10649	156	896641.92903167
13	10699	157	896574.24903167
13	10749	158	896506.56903167
13	10799	159	896438.88903167
13	10849	160	896371.20903167
13	10899	161	896303.52903167
13	10949	162	896235.84903167
13	11068	163	896168.16903167
13	11118	164	896100.48903167
13	11168	165	896032.80903167
13	11256	166	895965.12903167
13	11306	167	895897.44903167
13	11356	168	895829.76903167
13	11406	169	895762.08903167
13	11456	170	895694.40903167
13	11506	171	895626.72903167
13	11556	172	895559.04903167
13	11606	173	895491.36903167
13	11656	174	895423.68903167
13	11706	175	895356.00903167
13	11756	176	895288.32903167
13	11908	177	895220.64903167
13	12058	178	895152.96903167
13	12108	179	895085.28903167
13	12160	180	895017.60903167
13	12248	181	894949.92903167
13	12298	182	894882.24903167
13	12386	183	894814.56903167
13	12436	184	894746.88903167
13	12486	185	894679.20903167
13	12536	186	894611.52903167
13	12586	187	894543.84903167
13	12774	188	894476.16903167
13	12824	189	894408.48903167
13	12874	190	894340.80903167
13	12924	191	894273.12903167
13	12974	192	894205.44903167
13	13024	193	894137.76903167
13	13169	194	894070.08903167
13	13219	195	894002.40903167
13	13364	196	893934.72903167
13	13414	197	893867.04903167
13	13464	198	893799.36903167
13	13619	199	893731.68903167
13	13669	200	893664.00903167
13	13719	201	893596.32903167
13	13885	202	893528.65564415
13	14030	203	893460.97564415
13	14080	204	893393.29564415
13	14199	205	893325.61564415
13	14249	206	893257.93564415
13	14299	207	893190.25564415
13	14444	208	893122.57564415
13	14494	209	893054.89564415
13	14544	210	892987.21564415
13	14594	211	892919.53564415
13	14644	212	892851.85564415
13	14694	213	892784.17564415
13	14744	214	892716.49564415
13	14794	215	892648.81564415
13	14939	216	892581.13564415
13	14989	217	892513.45564415
13	15039	218	892445.77564415
13	15089	219	892378.09564415
13	15139	220	892310.41564415
13	15189	221	892242.73564415
13	15239	222	892175.05564415
13	15289	223	892107.37564415
13	15339	224	892039.69564415
13	15389	225	891972.01564415
13	15544	226	891904.33564415
13	15594	227	891836.65564415
13	15760	228	891768.97564415
13	15810	229	891701.29564415
13	15860	230	891633.61564415
13	15910	231	891565.93564415
13	16093	232	891498.25564415
13	16259	233	891430.57564415
13	16309	234	891362.89564415
13	16359	235	891295.21564415
13	16409	236	891227.53564415
13	16459	237	891159.85564415
13	16547	238	891092.17564415
13	16597	239	891024.49564415
13	16649	240	890956.81564415
13	16699	241	890889.13564415
13	16749	242	890821.45564415
13	16799	243	890753.77564415
13	16849	244	890686.09564415
13	16899	245	890618.41564415
13	17044	246	890550.73564415
13	17094	247	890483.05564415
13	17144	248	890415.37564415
13	17194	249	890347.69564415
13	17244	250	890280.01564415
13	17294	251	890212.33564415
13	17344	252	890144.65564415
13	17394	253	890076.97564415
13	17444	254	890009.29564415
13	17494	255	889941.61564415
13	17544	256	889873.93564415
13	17658	257	889806.25564415
13	17708	258	889738.57564415
13	17758	259	889670.89564415
13	17808	260	889603.21564415
13	17858	261	889535.53564415
13	17908	262	889467.85564415
13	17958	263	889400.17564415
13	18008	264	889332.49564415
13	18058	265	889264.81564415
13	18108	266	889197.13564415
13	18158	267	889129.45564415
13	18208	268	889061.77564415
13	18258	269	888994.09564415
13	18308	270	888926.41564415
13	18358	271	888858.73564415
13	18408	272	888791.05564415
13	18458	273	888723.37564415
13	18508	274	888655.69564415
13	18558	275	888588.01564415
13	18608	276	888520.33564415
13	18658	277	888452.65564415
13	18708	278	888384.97564415
13	18758	279	888317.29564415
13	18808	280	888249.61564415
13	18858	281	888181.93564415
13	18908	282	888114.25564415
13	19027	283	888046.57564415
13	19077	284	887978.89564415
13	19127	285	887911.21564415
13	19215	286	887843.53564415
13	19265	287	887775.85564415
13	19315	288	887708.17564415
13	19365	289	887640.49564415
13	19415	290	887572.81564415
13	19465	291	887505.13564415
13	19515	292	887437.45564415
13	19565	293	887369.77564415
13	19615	294	887302.09564415
13	19665	295	887234.41564415
13	19715	296	887166.73564415
13	19867	297	887099.05564415
13	20017	298	887031.37564415
13	20067	299	886963.69564415
13	20119	300	886896.01564414
13	20207	301	886828.33564414
13	20257	302	886760.65564414
13	20345	303	886692.97564414
13	20395	304	886625.29564414
13	20445	305	886557.61564414
13	20495	306	886489.93564414
13	20545	307	886422.25564414
13	20733	308	886354.57564414
13	20783	309	886286.89564414
13	20833	310	886219.21564414
13	20883	311	886151.53564414
13	20933	312	886083.85564414
13	20983	313	886016.17564414
13	21128	314	885948.49564414
13	21178	315	885880.81564414
13	21323	316	885813.13564414
13	21373	317	885745.45564414
13	21423	318	885677.77564414
13	21578	319	885610.09564414
13	21628	320	885542.41564414
13	21678	321	885474.73564414
13	21844	322	885407.06225662
13	21989	323	885339.38225662
13	22039	324	885271.70225662
13	22158	325	885204.02225662
13	22208	326	885136.34225662
13	22258	327	885068.66225662
13	22403	328	885000.98225662
13	22453	329	884933.30225662
13	22503	330	884865.62225662
13	22553	331	884797.94225662
13	22603	332	884730.26225662
13	22653	333	884662.58225662
13	22703	334	884594.90225662
13	22753	335	884527.22225662
13	22898	336	884459.54225662
13	22948	337	884391.86225662
13	22998	338	884324.18225662
13	23048	339	884256.50225662
13	23098	340	884188.82225662
13	23148	341	884121.14225662
13	23198	342	884053.46225662
13	23248	343	883985.78225662
13	23298	344	883918.10225662
13	23348	345	883850.42225662
13	23503	346	883782.74225662
13	23553	347	883715.06225662
13	23719	348	883647.38225662
13	23769	349	883579.70225662
13	23819	350	883512.02225662
13	23869	351	883444.34225662
13	24052	352	883376.66225662
13	24218	353	883308.98225662
13	24268	354	883241.30225662
13	24318	355	883173.62225662
13	24368	356	883105.94225662
13	24418	357	883038.26225662
13	24506	358	882970.58225662
13	24556	359	882902.90225662
13	24608	360	882835.22225662
13	24658	361	882767.54225662
13	24708	362	882699.86225662
13	24758	363	882632.18225662
13	24808	364	882564.50225662
13	24858	365	882496.82225662
13	25003	366	882429.14225662
13	25053	367	882361.46225662
13	25103	368	882293.78225662
13	25153	369	882226.10225662
13	25203	370	882158.42225662
13	25253	371	882090.74225662
13	25303	372	882023.06225662
13	25353	373	881955.38225662
13	25403	374	881887.70225662
13	25453	375	881820.02225662
13	25503	376	881752.34225662
13	25617	377	881684.66225662
13	25667	378	881616.98225662
13	25717	379	881549.30225662
13	25767	380	881481.62225662
13	25817	381	881413.94225662
13	25867	382	881346.26225662
13	25917	383	881278.58225662
13	25967	384	881210.90225662
13	26017	385	881143.22225662
13	26067	386	881075.54225662
13	26117	387	881007.86225662
13	26167	388	880940.18225662
13	26217	389	880872.50225662
13	26267	390	880804.82225662
13	26317	391	880737.14225662
13	26367	392	880669.46225662
13	26417	393	880601.78225662
13	26467	394	880534.10225662
13	26517	395	880466.42225662
13	26567	396	880398.74225662
13	26617	397	880331.06225662
13	26667	398	880263.38225662
13	26717	399	880195.70225662
13	26767	400	880128.02225662
13	26817	401	880060.34225662
13	26867	402	879992.66225662
13	26986	403	879924.98225662
13	27036	404	879857.30225662
13	27086	405	879789.62225662
13	27174	406	879721.94225662
13	27224	407	879654.26225662
13	27274	408	879586.58225662
13	27324	409	879518.90225662
13	27374	410	879451.22225662
13	27424	411	879383.54225662
13	27474	412	879315.86225662
13	27524	413	879248.18225662
13	27574	414	879180.50225662
13	27624	415	879112.82225662
13	27674	416	879045.14225662
13	27826	417	878977.46225662
13	27976	418	878909.78225662
13	28026	419	878842.10225662
13	28078	420	878774.42225662
13	28166	421	878706.74225662
13	28216	422	878639.06225662
13	28304	423	878571.38225662
13	28354	424	878503.70225662
13	28404	425	878436.02225662
13	28454	426	878368.34225662
13	28504	427	878300.66225662
13	28692	428	878232.98225662
13	28742	429	878165.30225662
13	28792	430	878097.62225662
13	28842	431	878029.94225662
13	28892	432	877962.26225662
13	28942	433	877894.58225662
13	29087	434	877826.90225662
13	29137	435	877759.22225662
13	29282	436	877691.54225662
13	29332	437	877623.86225662
13	29382	438	877556.18225662
13	29537	439	877488.50225662
13	29587	440	877420.82225662
13	29637	441	877353.14225662
13	29803	442	877285.4688691
13	29948	443	877217.7888691
13	29998	444	877150.1088691
13	30117	445	877082.4288691
13	30167	446	877014.7488691
13	30217	447	876947.0688691
13	30362	448	876879.3888691
13	30412	449	876811.7088691
13	30462	450	876744.0288691
13	30512	451	876676.3488691
13	30562	452	876608.6688691
13	30612	453	876540.9888691
13	30662	454	876473.3088691
13	30712	455	876405.6288691
13	30857	456	876337.9488691
13	30907	457	876270.2688691
13	30957	458	876202.5888691
13	31007	459	876134.9088691
13	31057	460	876067.2288691
13	31107	461	875999.5488691
13	31157	462	875931.8688691
13	31207	463	875864.1888691
13	31257	464	875796.5088691
13	31307	465	875728.8288691
13	31462	466	875661.1488691
13	31512	467	875593.4688691
13	31678	468	875525.7888691
13	31728	469	875458.1088691
13	31778	470	875390.4288691
13	31828	471	875322.7488691
13	32011	472	875255.0688691
13	32177	473	875187.3888691
13	32227	474	875119.7088691
13	32277	475	875052.0288691
13	32327	476	874984.3488691
13	32377	477	874916.6688691
13	32465	478	874848.9888691
13	32515	479	874781.3088691
13	32567	480	874713.6288691
13	32617	481	874645.9488691
13	32667	482	874578.2688691
13	32717	483	874510.5888691
13	32767	484	874442.9088691
13	32817	485	874375.2288691
13	32962	486	874307.5488691
13	33012	487	874239.8688691
13	33062	488	874172.1888691
13	33112	489	874104.5088691
13	33162	490	874036.8288691
13	33212	491	873969.1488691
13	33262	492	873901.4688691
13	33312	493	873833.7888691
13	33362	494	873766.1088691
13	33412	495	873698.4288691
13	33462	496	873630.74886909
13	33576	497	873563.06886909
13	33626	498	873495.38886909
13	33676	499	873427.70886909
13	33726	500	873360.02886909
13	33776	501	873292.34886909
13	33826	502	873224.66886909
13	33876	503	873156.98886909
13	33926	504	873089.30886909
13	33976	505	873021.62886909
13	34026	506	872953.94886909
13	34076	507	872886.26886909
13	34126	508	872818.58886909
13	34176	509	872750.90886909
13	34226	510	872683.22886909
13	34276	511	872615.54886909
13	34326	512	872547.86886909
13	34376	513	872480.18886909
13	34426	514	872412.50886909
13	34476	515	872344.82886909
13	34526	516	872277.14886909
13	34576	517	872209.46886909
13	34626	518	872141.78886909
13	34676	519	872074.10886909
13	34726	520	872006.42886909
13	34776	521	871938.74886909
13	34826	522	871871.06886909
13	34945	523	871803.38886909
13	34995	524	871735.70886909
13	35045	525	871668.02886909
13	35133	526	871600.34886909
13	35183	527	871532.66886909
13	35233	528	871464.98886909
13	35283	529	871397.30886909
13	35333	530	871329.62886909
13	35383	531	871261.94886909
13	35433	532	871194.26886909
13	35483	533	871126.58886909
13	35533	534	871058.90886909
13	35583	535	870991.22886909
13	35633	536	870923.54886909
13	35785	537	870855.86886909
13	35935	538	870788.18886909
13	35985	539	870720.50886909
13	36037	540	870652.82886909
13	36125	541	870585.14886909
13	36175	542	870517.46886909
13	36263	543	870449.78886909
13	36313	544	870382.10886909
13	36363	545	870314.42886909
13	36413	546	870246.74886909
13	36463	547	870179.06886909
13	36651	548	870111.38886909
13	36701	549	870043.70886909
13	36751	550	869976.02886909
13	36801	551	869908.34886909
13	36851	552	869840.66886909
13	36901	553	869772.98886909
13	37046	554	869705.30886909
13	37096	555	869637.62886909
13	37241	556	869569.94886909
13	37291	557	869502.26886909
13	37341	558	869434.58886909
13	37496	559	869366.90886909
13	37546	560	869299.22886909
13	37596	561	869231.54886909
13	37762	562	869163.87548157
13	37907	563	869096.19548157
13	37957	564	869028.51548157
13	38076	565	868960.83548157
13	38126	566	868893.15548157
13	38176	567	868825.47548157
13	38321	568	868757.79548157
13	38371	569	868690.11548157
13	38421	570	868622.43548157
13	38471	571	868554.75548157
13	38521	572	868487.07548157
13	38571	573	868419.39548157
13	38621	574	868351.71548157
13	38671	575	868284.03548157
13	38816	576	868216.35548157
13	38866	577	868148.67548157
13	38916	578	868080.99548157
13	38966	579	868013.31548157
13	39016	580	867945.63548157
13	39066	581	867877.95548157
13	39116	582	867810.27548157
13	39166	583	867742.59548157
13	39216	584	867674.91548157
13	39266	585	867607.23548157
13	39421	586	867539.55548157
13	39471	587	867471.87548157
13	39637	588	867404.19548157
13	39687	589	867336.51548157
13	39737	590	867268.83548157
13	39787	591	867201.15548157
13	39970	592	867133.47548157
13	40136	593	867065.79548157
13	40186	594	866998.11548157
13	40236	595	866930.43548157
13	40286	596	866862.75548157
13	40336	597	866795.07548157
13	40424	598	866727.39548157
13	40474	599	866659.71548157
13	40526	600	866592.03548157
13	40576	601	866524.35548157
13	40626	602	866456.67548157
13	40676	603	866388.99548157
13	40726	604	866321.31548157
13	40776	605	866253.63548157
13	40921	606	866185.95548157
13	40971	607	866118.27548157
13	41021	608	866050.59548157
13	41071	609	865982.91548157
13	41121	610	865915.23548157
13	41171	611	865847.55548157
13	41221	612	865779.87548157
13	41271	613	865712.19548157
13	41321	614	865644.51548157
13	41371	615	865576.83548157
13	41421	616	865509.15548157
13	41535	617	865441.47548157
13	41585	618	865373.79548157
13	41635	619	865306.11548157
13	41685	620	865238.43548157
13	41735	621	865170.75548157
13	41785	622	865103.07548157
13	41835	623	865035.39548157
13	41885	624	864967.71548157
13	41935	625	864900.03548157
13	41985	626	864832.35548157
13	42035	627	864764.67548157
13	42085	628	864696.99548157
13	42135	629	864629.31548157
13	42185	630	864561.63548157
13	42235	631	864493.95548157
13	42285	632	864426.27548157
13	42335	633	864358.59548157
13	42385	634	864290.91548157
13	42435	635	864223.23548157
13	42485	636	864155.55548157
13	42535	637	864087.87548157
13	42585	638	864020.19548157
13	42635	639	863952.51548157
13	42685	640	863884.83548157
13	42735	641	863817.15548157
13	42785	642	863749.47548157
13	42904	643	863681.79548157
13	42954	644	863614.11548157
13	43004	645	863546.43548157
13	43092	646	863478.75548157
13	43142	647	863411.07548157
13	43192	648	863343.39548157
13	43242	649	863275.71548157
13	43292	650	863208.03548157
13	43342	651	863140.35548157
13	43392	652	863072.67548157
13	43442	653	863004.99548157
13	43492	654	862937.31548157
13	43542	655	862869.63548157
13	43592	656	862801.95548157
13	43744	657	862734.27548157
13	43894	658	862666.59548157
13	43944	659	862598.91548157
13	43996	660	862531.23548157
13	44084	661	862463.55548157
13	44134	662	862395.87548157
13	44222	663	862328.19548157
13	44272	664	862260.51548157
13	44322	665	862192.83548157
13	44372	666	862125.15548157
13	44422	667	862057.47548157
13	44610	668	861989.79548157
13	44660	669	861922.11548157
13	44710	670	861854.43548157
13	44760	671	861786.75548157
13	44810	672	861719.07548157
13	44860	673	861651.39548157
13	45005	674	861583.71548157
13	45055	675	861516.03548157
13	45200	676	861448.35548157
13	45250	677	861380.67548157
13	45300	678	861312.99548157
13	45455	679	861245.31548157
13	45505	680	861177.63548157
13	45555	681	861109.95548157
13	45721	682	861042.28209405
13	45866	683	860974.60209405
13	45916	684	860906.92209405
13	46035	685	860839.24209405
13	46085	686	860771.56209405
13	46135	687	860703.88209405
13	46280	688	860636.20209405
13	46330	689	860568.52209405
13	46380	690	860500.84209405
13	46430	691	860433.16209405
13	46480	692	860365.48209405
13	46530	693	860297.80209405
13	46580	694	860230.12209405
13	46630	695	860162.44209404
13	46775	696	860094.76209404
13	46825	697	860027.08209404
13	46875	698	859959.40209404
13	46925	699	859891.72209404
13	46975	700	859824.04209404
13	47025	701	859756.36209404
13	47075	702	859688.68209404
13	47125	703	859621.00209404
13	47175	704	859553.32209404
13	47225	705	859485.64209404
13	47380	706	859417.96209404
13	47430	707	859350.28209404
13	47596	708	859282.60209404
13	47646	709	859214.92209404
13	47696	710	859147.24209404
13	47746	711	859079.56209404
13	47929	712	859011.88209404
13	48095	713	858944.20209404
13	48145	714	858876.52209404
13	48195	715	858808.84209404
13	48245	716	858741.16209404
13	48295	717	858673.48209404
13	48383	718	858605.80209404
13	48433	719	858538.12209404
13	48485	720	858470.44209404
13	48535	721	858402.76209404
13	48585	722	858335.08209404
13	48635	723	858267.40209404
13	48685	724	858199.72209404
13	48735	725	858132.04209404
13	48880	726	858064.36209404
13	48930	727	857996.68209404
13	48980	728	857929.00209404
13	49030	729	857861.32209404
13	49080	730	857793.64209404
13	49130	731	857725.96209404
13	49180	732	857658.28209404
13	49230	733	857590.60209404
13	49280	734	857522.92209404
13	49330	735	857455.24209404
13	49380	736	857387.56209404
13	49494	737	857319.88209404
13	49544	738	857252.20209404
13	49594	739	857184.52209404
13	49644	740	857116.84209404
13	49694	741	857049.16209404
13	49744	742	856981.48209404
13	49794	743	856913.80209404
13	49844	744	856846.12209404
13	49894	745	856778.44209404
13	49944	746	856710.76209404
13	49994	747	856643.08209404
13	50044	748	856575.40209404
13	50094	749	856507.72209404
13	50144	750	856440.04209404
13	50194	751	856372.36209404
13	50244	752	856304.68209404
13	50294	753	856237.00209404
13	50344	754	856169.32209404
13	50394	755	856101.64209404
13	50444	756	856033.96209404
13	50494	757	855966.28209404
13	50544	758	855898.60209404
13	50594	759	855830.92209404
13	50644	760	855763.24209404
13	50694	761	855695.56209404
13	50744	762	855627.88209404
13	50863	763	855560.20209404
13	50913	764	855492.52209404
13	50963	765	855424.84209404
13	51051	766	855357.16209404
13	51101	767	855289.48209404
13	51151	768	855221.80209404
13	51201	769	855154.12209404
13	51251	770	855086.44209404
13	51301	771	855018.76209404
13	51351	772	854951.08209404
13	51401	773	854883.40209404
13	51451	774	854815.72209404
13	51501	775	854748.04209404
13	51551	776	854680.36209404
13	51703	777	854612.68209404
13	51853	778	854545.00209404
13	51903	779	854477.32209404
13	51955	780	854409.64209404
13	52043	781	854341.96209404
13	52093	782	854274.28209404
13	52181	783	854206.60209404
13	52231	784	854138.92209404
13	52281	785	854071.24209404
13	52331	786	854003.56209404
13	52381	787	853935.88209404
13	52569	788	853868.20209404
13	52619	789	853800.52209404
13	52669	790	853732.84209404
13	52719	791	853665.16209404
13	52769	792	853597.48209404
13	52819	793	853529.80209404
13	52964	794	853462.12209404
13	53014	795	853394.44209404